LAMMPS (31 Mar 2017)
Reading data file ...
  orthogonal box = (-3 -3 -30) to (3 3 30)
  1 by 1 by 1 MPI processor grid
WARNING: Atom style in data file differs from currently defined atom style (../read_data.cpp:455)
  reading atoms ...
  2 atoms
Finding 1-2 1-3 1-4 neighbors ...
  special bond factors lj:   0          0          0         
  special bond factors coul: 0          0          0         
  0 = max # of 1-2 neighbors
  0 = max # of 1-3 neighbors
  0 = max # of 1-4 neighbors
  1 = max # of special neighbors
PPPM initialization ...
WARNING: Using 12-bit tables for long-range coulomb (../kspace.cpp:330)
  G vector (1/distance) = 0.581635
  grid = 12 12 216
  stencil order = 5
  estimated absolute RMS force accuracy = 7.47447e-06
  estimated relative force accuracy = 7.47447e-06
  using double precision FFTs
  3d grid and FFT values/proc = 63002 31104
Neighbor list info ...
  update every 1 steps, delay 1 steps, check yes
  max neighbors/atom: 2000, page size: 100000
  master list distance cutoff = 5.4
  ghost atom cutoff = 5.4
  binsize = 2.7, bins = 3 3 23
  1 neighbor lists, perpetual/occasional/extra = 1 0 0
  (1) pair lj/cut/coul/long, perpetual
      attributes: half, newton on
      pair build: half/bin/newton
      stencil: half/bin/3d/newton
      bin: standard
Setting up Verlet run ...
  Unit style    : lj
  Current step  : 0
  Time step     : 1e-08
Per MPI rank memory allocation (min/avg/max) = 14.28 | 14.28 | 14.28 Mbytes
Step Temp TotEng KinEng PotEng E_pair E_coul E_long E_vdwl 
       0            0    1.3042965            0    1.3042965    1.3042965    1.1978035   0.10649298            0 
       1 3.3942688e-14    1.3042965 2.5457016e-14    1.3042965    1.3042965    1.1978035   0.10649298            0 
       2 1.3577075e-13    1.3042965 1.0182806e-13    1.3042965    1.3042965    1.1978035   0.10649298            0 
       3 3.0548419e-13    1.3042965 2.2911315e-13    1.3042965    1.3042965    1.1978035   0.10649298            0 
       4 5.4308301e-13    1.3042965 4.0731226e-13    1.3042965    1.3042965    1.1978035   0.10649298            0 
       5 8.4856721e-13    1.3042965 6.364254e-13    1.3042965    1.3042965    1.1978035   0.10649298            0 
Loop time of 0.046519 on 1 procs for 5 steps with 2 atoms

Performance: 0.093 tau/day, 107.483 timesteps/s
94.6% CPU use with 1 MPI tasks x no OpenMP threads

MPI task timing breakdown:
Section |  min time  |  avg time  |  max time  |%varavg| %total
---------------------------------------------------------------
Pair    | 5.8651e-05 | 5.8651e-05 | 5.8651e-05 |   0.0 |  0.13
Bond    | 3.0994e-06 | 3.0994e-06 | 3.0994e-06 |   0.0 |  0.01
Kspace  | 0.046256   | 0.046256   | 0.046256   |   0.0 | 99.44
Neigh   | 0          | 0          | 0          |   0.0 |  0.00
Comm    | 1.9789e-05 | 1.9789e-05 | 1.9789e-05 |   0.0 |  0.04
Output  | 0.00012803 | 0.00012803 | 0.00012803 |   0.0 |  0.28
Modify  | 2.408e-05  | 2.408e-05  | 2.408e-05  |   0.0 |  0.05
Other   |            | 2.909e-05  |            |       |  0.06

Nlocal:    2 ave 2 max 2 min
Histogram: 1 0 0 0 0 0 0 0 0 0
Nghost:    16 ave 16 max 16 min
Histogram: 1 0 0 0 0 0 0 0 0 0
Neighs:    1 ave 1 max 1 min
Histogram: 1 0 0 0 0 0 0 0 0 0

Total # of neighbors = 1
Ave neighs/atom = 0.5
Ave special neighs/atom = 0
Neighbor list builds = 0
Dangerous builds = 0
Total wall time: 0:00:00
