LAMMPS Description
 
 20 atoms
 
 1  atom types

    -3 3    xlo xhi
    -3 3  ylo yhi
   -30 30   zlo zhi

Masses
 
  1 1

Atoms#atom_ID,mol_ID,atom_type,x,y,z

1	1	1	-1	-1.53027	0.11077	1.17668
2	1	1	1	-1.88716	0.12263	-0.36412
3	1	1	-1	-2.18089	-1.79312	0.11166
4	1	1	1	0.28966	0.16881	0.24029
5	1	1	-1	1.07554	-0.12382	0.07553
6	1	1	1	-1.79648	-0.26848	-2.75281
7	1	1	-1	0.74199	-2.33017	1.36002
8	1	1	1	-0.39513	0.62114	-1.47385
9	1	1	-1	-0.05208	1.10548	-0.72674
10	1	1	1	0.13302	2.92685	-1.41964
11	1	1	-1	-0.57546	-0.37218	-0.82949
12	1	1	1	-0.06207	0.17099	1.87413
13	1	1	-1	0.79006	1.55299	1.04098
14	1	1	1	1.51334	-0.31518	2.18678
15	1	1	-1	1.80812	-1.27259	1.2194
16	1	1	1	2.28392	-2.46416	0.89886
17	1	1	-1	0.82781	-0.61758	2.01112
18	1	1	1	2.91924	2.04057	1.67178
19	1	1	-1	-0.06288	0.13018	0.77344
20	1	1	1	-0.48657	-2.24389	0.15664
