LAMMPS (31 Mar 2017)
Reading data file ...
  orthogonal box = (-3 -3 -30) to (3 3 30)
  1 by 1 by 1 MPI processor grid
WARNING: Atom style in data file differs from currently defined atom style (../read_data.cpp:455)
  reading atoms ...
  20 atoms
Finding 1-2 1-3 1-4 neighbors ...
  special bond factors lj:   0          0          0         
  special bond factors coul: 0          0          0         
  0 = max # of 1-2 neighbors
  0 = max # of 1-3 neighbors
  0 = max # of 1-4 neighbors
  1 = max # of special neighbors
PPPM initialization ...
WARNING: Using 12-bit tables for long-range coulomb (../kspace.cpp:330)
  G vector (1/distance) = 0.614831
  grid = 15 15 256
  stencil order = 5
  estimated absolute RMS force accuracy = 9.18706e-06
  estimated relative force accuracy = 9.18706e-06
  using double precision FFTs
  3d grid and FFT values/proc = 113778 57600
Neighbor list info ...
  update every 1 steps, delay 1 steps, check yes
  max neighbors/atom: 2000, page size: 100000
  master list distance cutoff = 5.4
  ghost atom cutoff = 5.4
  binsize = 2.7, bins = 3 3 23
  1 neighbor lists, perpetual/occasional/extra = 1 0 0
  (1) pair lj/cut/coul/long, perpetual
      attributes: half, newton on
      pair build: half/bin/newton
      stencil: half/bin/3d/newton
      bin: standard
Setting up Verlet run ...
  Unit style    : lj
  Current step  : 0
  Time step     : 1e-08
Per MPI rank memory allocation (min/avg/max) = 22.31 | 22.31 | 22.31 Mbytes
Step Temp TotEng KinEng PotEng E_pair E_coul E_long E_vdwl 
       0            0  -0.43357443            0  -0.43357443  -0.43357443  -0.19810072  -0.23547371            0 
       1 6.0170161e-17  -0.43357443 8.5742479e-17  -0.43357443  -0.43357443  -0.19810072  -0.23547371            0 
       2 2.4068064e-16  -0.43357443 3.4296992e-16  -0.43357443  -0.43357443  -0.19810072  -0.23547371            0 
       3 5.4153145e-16  -0.43357443 7.7168231e-16  -0.43357443  -0.43357443  -0.19810072  -0.23547371            0 
       4 9.6272258e-16  -0.43357443 1.3718797e-15  -0.43357443  -0.43357443  -0.19810072  -0.23547371            0 
       5 1.504254e-15  -0.43357443 2.143562e-15  -0.43357443  -0.43357443  -0.19810072  -0.23547371            0 
Loop time of 0.0991938 on 1 procs for 5 steps with 20 atoms

Performance: 0.044 tau/day, 50.406 timesteps/s
100.8% CPU use with 1 MPI tasks x no OpenMP threads

MPI task timing breakdown:
Section |  min time  |  avg time  |  max time  |%varavg| %total
---------------------------------------------------------------
Pair    | 0.00054789 | 0.00054789 | 0.00054789 |   0.0 |  0.55
Bond    | 9.5367e-07 | 9.5367e-07 | 9.5367e-07 |   0.0 |  0.00
Kspace  | 0.097794   | 0.097794   | 0.097794   |   0.0 | 98.59
Neigh   | 0          | 0          | 0          |   0.0 |  0.00
Comm    | 3.6716e-05 | 3.6716e-05 | 3.6716e-05 |   0.0 |  0.04
Output  | 0.0007441  | 0.0007441  | 0.0007441  |   0.0 |  0.75
Modify  | 3.171e-05  | 3.171e-05  | 3.171e-05  |   0.0 |  0.03
Other   |            | 3.839e-05  |            |       |  0.04

Nlocal:    20 ave 20 max 20 min
Histogram: 1 0 0 0 0 0 0 0 0 0
Nghost:    151 ave 151 max 151 min
Histogram: 1 0 0 0 0 0 0 0 0 0
Neighs:    415 ave 415 max 415 min
Histogram: 1 0 0 0 0 0 0 0 0 0

Total # of neighbors = 415
Ave neighs/atom = 20.75
Ave special neighs/atom = 0
Neighbor list builds = 0
Dangerous builds = 0
Total wall time: 0:00:00
